# Probe 0 (0.22 0.07 0.04)
# Probe 1 (0.23 0.07 0.04)
# Probe 2 (0.24 0.07 0.04)
# Probe 3 (0.25 0.07 0.04)
# Probe 4 (0.26 0.07 0.04)
# Probe 5 (0.22 0.06 0.04)
# Probe 6 (0.23 0.06 0.04)
# Probe 7 (0.24 0.06 0.04)
# Probe 8 (0.25 0.06 0.04)
# Probe 9 (0.26 0.06 0.04)
# Probe 10 (0.22 0.05 0.04)
# Probe 11 (0.23 0.05 0.04)
# Probe 12 (0.24 0.05 0.04)
# Probe 13 (0.25 0.05 0.04)
# Probe 14 (0.26 0.05 0.04)
#       Probe             0             1             2             3             4             5             6             7             8             9            10            11            12            13            14
#        Time
            0             (16.6 0 0)             (16.6 0 0)             (16.6 0 0)             (16.6 0 0)             (16.6 0 0)             (16.6 0 0)             (16.6 0 0)             (16.6 0 0)             (16.6 0 0)             (16.6 0 0)             (16.6 0 0)             (16.6 0 0)             (16.6 0 0)             (16.6 0 0)             (16.6 0 0)
        0.005             (2.33585 2.45619 -0.000216213)             (2.8008 -2.01809 -0.000170258)             (4.86541 -3.56707 -0.000170951)             (9.13728 -4.96523 -0.000126604)             (12.3983 -4.30068 -4.3754e-05)             (-4.46195 -0.345241 -0.000290403)             (-4.9077 0.221467 -0.0003349)             (-2.26295 0.461895 -0.000293661)             (4.5832 0.66025 -0.00021401)             (9.92216 0.577385 -0.000148938)             (5.22219 -2.73759 -8.24605e-05)             (5.8249 2.44104 -0.000228128)             (7.46846 4.11406 -7.5241e-05)             (10.9632 5.666 -0.0001343)             (13.473 4.86942 -0.000127998)
         0.01             (-1.98917 3.28351 -0.00147909)             (-2.56867 -1.07962 -0.00159344)             (-0.914497 -3.07185 -0.00139829)             (3.55875 -4.74935 -0.000647416)             (7.10133 -4.46507 3.5217e-05)             (-10.9255 -0.451195 -0.00112845)             (-12.6253 0.108423 -0.00136149)             (-10.7311 0.381088 -0.00130511)             (-4.65497 0.606398 -0.000950416)             (0.409373 0.57986 -0.000658599)             (1.43087 -3.71435 -0.000359659)             (1.14321 1.33552 -0.00101661)             (2.50806 3.60185 -0.00133803)             (6.29417 5.52698 -0.00156036)             (9.23577 5.16308 -0.00145645)
        0.015             (-3.85574 3.63162 0.00438736)             (-4.96922 -0.395554 0.00379142)             (-3.79295 -2.39901 0.00234045)             (0.179263 -4.27975 -0.000813117)             (3.62837 -4.27312 -0.00297439)             (-13.7316 -0.512906 -0.00593673)             (-16.1705 0.0119335 -0.0120399)             (-14.951 0.282907 -0.0149179)             (-9.84735 0.534952 -0.0161558)             (-5.24994 0.548848 -0.014905)             (-0.259187 -4.12356 0.0015447)             (-0.985272 0.523138 -0.00575548)             (0.020845 2.82481 -0.0109035)             (3.44731 5.02843 -0.0165157)             (6.38942 5.01292 -0.0174991)
         0.02             (-4.91967 3.7968 -0.00690067)             (-6.25038 0.0267132 -0.0273191)             (-5.35976 -1.91293 -0.0352142)             (-1.82845 -3.85171 -0.0336535)             (1.43771 -4.03233 -0.0242953)             (-15.1684 -0.486968 -0.0283342)             (-18.0079 -0.00184388 -0.0457303)             (-17.2427 0.238738 -0.0521593)             (-12.9293 0.466127 -0.0494046)             (-8.78888 0.487628 -0.0403308)             (-1.13804 -4.2598 0.009373)             (-2.14224 0.0427162 -0.0141534)             (-1.41592 2.25212 -0.0361392)             (1.61453 4.50347 -0.0614902)             (4.43333 4.70362 -0.0672261)
        0.025             (-5.31622 3.79916 -0.0273777)             (-6.8415 0.247739 -0.0904769)             (-6.23293 -1.57983 -0.133597)             (-3.18582 -3.43915 -0.179404)             (-0.169348 -3.70466 -0.184407)             (-16.0008 -0.54201 -0.0446385)             (-19.0755 -0.135223 -0.105092)             (-18.6278 0.105941 -0.132149)             (-14.9251 0.394574 -0.136272)             (-11.1742 0.473239 -0.115019)             (-1.83573 -4.35494 0.0573135)             (-2.94468 -0.344177 -0.022137)             (-2.35525 1.78141 -0.0754781)             (0.429935 4.08089 -0.115333)             (3.13354 4.46399 -0.110798)
         0.03             (-5.73892 3.88375 -0.0334291)             (-7.41681 0.543175 -0.204797)             (-6.95813 -1.2503 -0.290904)             (-4.17613 -3.17138 -0.35604)             (-1.3516 -3.5259 -0.348343)             (-16.4135 -0.557181 -0.141365)             (-19.6004 -0.101674 -0.312587)             (-19.3814 0.114213 -0.38388)             (-16.1624 0.325566 -0.390521)             (-12.7299 0.391625 -0.331083)             (-2.22618 -4.32098 0.0725824)             (-3.36869 -0.524948 -0.198673)             (-2.92335 1.45747 -0.388348)             (-0.453037 3.62175 -0.570534)             (2.08353 4.08658 -0.584447)
        0.035             (-5.98634 3.91804 -0.283203)             (-7.37634 0.58 -0.846497)             (-6.83967 -1.18809 -1.07922)             (-4.16504 -3.05501 -1.20855)             (-1.53286 -3.45192 -1.1647)             (-16.5365 -0.481601 -0.329493)             (-19.8065 -0.117502 -0.764005)             (-19.7349 0.0343486 -0.93572)             (-16.9284 0.188826 -0.947774)             (-13.853 0.235045 -0.799238)             (-2.03587 -4.31988 0.54201)             (-3.41827 -0.733814 -0.088589)             (-3.21065 1.12219 -0.623997)             (-1.10812 3.14496 -1.22668)             (1.21571 3.6417 -1.37429)
        0.038             (-5.44996 3.93436 -0.403839)             (-6.61964 0.397415 -1.2129)             (-6.09155 -1.3852 -1.63483)             (-3.70475 -3.09622 -2.17957)             (-1.43686 -3.4247 -2.27355)             (-16.0233 -0.435758 -0.78118)             (-19.2739 -0.471568 -1.53739)             (-19.355 -0.49429 -1.79565)             (-17.0674 -0.351293 -1.78148)             (-14.3986 -0.180462 -1.5693)             (-2.44247 -4.3081 0.638182)             (-3.85761 -1.26988 -0.360424)             (-3.63724 0.399528 -1.04919)             (-1.44881 2.4775 -1.82223)             (0.848398 3.16637 -1.95485)
         0.04             (-4.60724 4.1996 -0.327308)             (-5.54802 0.365638 -1.01157)             (-5.1019 -1.5411 -1.29575)             (-3.03023 -3.14754 -2.24289)             (-0.991531 -3.42753 -2.82373)             (-15.3439 0.059998 -1.38068)             (-18.5217 -0.444951 -2.40388)             (-18.7053 -0.803827 -2.7404)             (-16.8414 -0.832124 -2.70109)             (-14.4813 -0.595367 -2.46886)             (-2.57392 -4.02617 0.539913)             (-3.97925 -1.46714 -0.804947)             (-3.77049 -0.0903266 -1.54709)             (-1.5304 1.90983 -2.32791)             (0.791498 2.74757 -2.47063)
        0.045             (-4.24158 4.403 -0.66465)             (-4.81767 0.642715 -0.787027)             (-4.29876 -1.33052 -0.773357)             (-2.34679 -3.14434 -1.71701)             (-0.663212 -3.39136 -2.29553)             (-14.3469 0.558082 -1.90165)             (-17.4526 0.0168644 -2.7877)             (-17.715 -0.540651 -3.19855)             (-16.0908 -0.807784 -3.33925)             (-13.8845 -0.573093 -3.08718)             (-2.33883 -3.57253 0.495505)             (-3.90758 -1.0881 -1.25186)             (-3.86778 0.085254 -1.93703)             (-1.91179 1.46036 -2.14582)             (0.300518 2.19693 -1.81696)
         0.05             (-4.16075 4.35774 -0.905886)             (-4.75391 0.504425 -0.536726)             (-4.52802 -1.17258 -0.673008)             (-2.84867 -2.41731 -1.39628)             (-1.20252 -2.72259 -1.52649)             (-13.8551 0.597888 -2.19961)             (-16.969 -0.143718 -2.88043)             (-17.2399 -0.634971 -3.62047)             (-15.9005 -0.615175 -3.9331)             (-13.9369 -0.214372 -3.47671)             (-2.15709 -3.46453 0.418098)             (-3.77007 -1.21127 -1.46842)             (-3.79228 -0.127834 -2.0011)             (-1.86519 1.29309 -1.83577)             (0.436996 2.36887 -1.49899)
        0.055             (-4.59035 3.94396 -1.04349)             (-5.04059 0.489878 -0.809479)             (-4.7135 -0.989916 -0.987778)             (-3.16235 -1.8509 -1.59329)             (-1.85826 -1.78769 -1.5973)             (-13.3119 0.483826 -2.27569)             (-16.0429 -0.0834746 -2.79787)             (-16.209 -0.463105 -3.41522)             (-15.0009 -0.415287 -3.63439)             (-13.3927 -0.00987764 -3.03085)             (-2.12147 -3.34292 0.157193)             (-3.55802 -1.26195 -1.67144)             (-3.62031 -0.294509 -2.16446)             (-2.08912 0.885478 -1.57052)             (-0.147007 1.97525 -0.904313)
         0.06             (-4.52736 3.8134 -1.18889)             (-5.03787 0.869776 -0.651606)             (-5.01163 -0.374669 -0.735416)             (-3.54288 -1.41257 -1.67787)             (-2.02647 -1.94914 -1.89744)             (-12.5145 0.5558 -2.41249)             (-15.2442 0.111752 -2.55114)             (-15.7432 -0.268083 -2.83839)             (-14.9215 -0.197469 -3.29488)             (-13.5674 -0.0568874 -2.67246)             (-2.0247 -3.0741 0.0932711)             (-3.52778 -1.16943 -1.61262)             (-3.72257 -0.406713 -1.72778)             (-2.46263 0.803756 -1.17232)             (-0.601574 1.6636 -1.07218)
        0.065             (-4.65435 3.88565 -1.36165)             (-5.19721 1.05016 -0.859584)             (-5.21293 -0.416879 -0.871897)             (-3.88509 -2.00487 -1.50949)             (-2.432 -2.65565 -1.44198)             (-12.241 0.6247 -2.59021)             (-14.9361 0.194684 -2.59988)             (-15.421 -0.524051 -2.69097)             (-14.8282 -1.08438 -2.99405)             (-13.6224 -0.959968 -2.46962)             (-2.10338 -2.90577 0.220635)             (-3.67451 -1.25248 -1.78174)             (-3.99233 -0.844194 -1.84575)             (-2.55358 -0.0338681 -1.25294)             (-0.362352 1.15035 -1.26372)
         0.07             (-5.0123 3.14623 -1.27579)             (-5.78376 0.320334 -0.875374)             (-5.85612 -0.638434 -0.809096)             (-4.18739 -1.02071 -1.44832)             (-2.49595 -1.26531 -1.47275)             (-12.0192 -0.241181 -2.32801)             (-14.4891 -0.437101 -2.42313)             (-14.5959 -0.348176 -2.6581)             (-13.8725 0.214758 -2.86917)             (-12.6536 0.620142 -2.39983)             (-1.85412 -3.51036 0.408212)             (-2.85366 -1.45713 -1.71035)             (-2.95309 -0.488017 -1.87438)             (-1.50592 1.1733 -1.19403)             (0.42837 2.5762 -1.23399)
        0.075             (-5.33925 3.78043 -1.34491)             (-5.36487 1.26049 -0.79467)             (-4.88277 -0.119921 -0.601063)             (-2.84229 -1.45606 -1.25504)             (-1.24048 -2.01057 -1.33034)             (-12.1353 0.977783 -2.31537)             (-14.1417 1.17763 -2.44507)             (-13.9557 0.813929 -2.5728)             (-12.6513 0.06263 -2.63422)             (-11.2756 -0.138119 -2.21641)             (-1.28606 -2.09487 0.427981)             (-2.45224 0.231173 -1.71544)             (-2.88643 0.737313 -1.85717)             (-1.42955 1.33516 -1.13553)             (0.608222 1.89451 -1.18754)
         0.08             (-4.08322 3.27613 -0.982621)             (-4.10998 -0.300742 -0.62025)             (-3.79918 -1.81996 -0.540851)             (-2.21348 -2.68643 -1.17751)             (-1.00582 -3.00088 -1.21427)             (-11.625 0.807953 -1.95681)             (-13.2382 -0.363896 -2.2354)             (-12.8838 -0.990467 -2.4461)             (-11.5873 -1.50476 -2.49239)             (-10.3108 -1.25219 -2.10585)             (-2.05191 -1.79635 0.325756)             (-2.64031 -0.838437 -1.68039)             (-2.56183 -0.636332 -1.8119)             (-0.78422 -0.219835 -1.07949)             (1.46336 0.934823 -1.23836)
        0.085             (-4.01153 1.38249 -1.14533)             (-4.2854 -1.14176 -0.561525)             (-3.77025 -1.54785 -0.439583)             (-1.76754 -1.30852 -1.13441)             (-0.33451 -1.50788 -1.16494)             (-11.4498 -0.893165 -1.91006)             (-12.5604 -0.901327 -1.87483)             (-11.8048 -0.309995 -2.1739)             (-10.2967 0.0518637 -2.34866)             (-9.05834 0.261109 -1.98732)             (-1.45372 -2.72989 0.63651)             (-1.28093 -0.750101 -1.13881)             (-1.07347 0.266017 -1.53888)             (0.413649 1.20922 -0.977152)             (2.28828 2.16399 -1.14559)
         0.09             (-4.25305 2.43259 -1.32425)             (-3.95266 0.330597 -0.70133)             (-3.20658 -0.0674036 -0.318653)             (-0.728931 -1.07586 -1.17897)             (0.805806 -2.42948 -1.1776)             (-11.0205 0.520218 -1.72245)             (-11.8267 0.755804 -1.91291)             (-11.177 1.2119 -2.08085)             (-9.63293 0.492376 -2.42203)             (-8.19869 -0.491801 -2.14105)             (-0.639577 -1.31158 0.821333)             (-0.761291 0.733639 -1.12521)             (-0.860176 1.4614 -1.5455)             (0.301258 1.62391 -0.926801)             (2.26018 1.6359 -1.24238)
          0.1             (-4.5329 1.01166 -1.35663)             (-4.17928 -0.160042 -0.698315)             (-3.26746 0.180205 -0.277394)             (-0.569057 -0.0588195 -1.12516)             (1.12636 -1.33154 -1.06258)             (-10.8202 -0.487335 -1.51796)             (-11.1587 0.531002 -1.36552)             (-10.2775 1.68213 -1.69981)             (-8.69481 1.63092 -2.25347)             (-7.32314 0.64117 -1.9287)             (0.0808976 -1.75074 1.30316)             (0.352785 0.888515 -0.485697)             (0.274966 1.99241 -1.20583)             (1.23752 2.67806 -0.788973)             (2.86025 2.56496 -1.05384)
        0.105             (-4.71926 1.97763 -1.36493)             (-3.8863 0.808933 -0.690798)             (-2.55068 0.64495 -0.0934386)             (0.498355 -0.656496 -0.98932)             (2.03137 -2.18309 -1.06797)             (-10.6887 0.898198 -1.39152)             (-10.8801 1.74024 -1.40427)             (-9.86618 2.4453 -1.69777)             (-7.97311 1.22947 -2.21142)             (-6.52084 -0.231169 -1.90485)             (0.535052 -0.332092 1.30723)             (0.435649 1.93785 -0.388495)             (0.115376 2.70753 -1.19352)             (1.10983 2.48037 -0.766888)             (2.82226 1.80475 -0.999407)
         0.11             (-3.84963 1.46641 -1.13551)             (-3.12069 -0.548186 -0.581525)             (-2.05589 -0.577043 -0.0231126)             (0.546984 -1.54694 -0.885162)             (1.98261 -2.50303 -1.09978)             (-10.301 0.433413 -1.17124)             (-10.3987 0.329515 -1.29006)             (-9.32927 1.09049 -1.57993)             (-7.39793 0.186097 -2.171)             (-5.84234 -0.562181 -2.11162)             (-0.0718413 -0.635434 1.21063)             (0.228536 0.883905 -0.359349)             (0.195723 1.55162 -1.16519)             (1.67522 1.59168 -0.909918)             (3.67815 1.63264 -1.20137)
        0.115             (-4.24297 0.425859 -1.20022)             (-3.27295 -0.466518 -0.536788)             (-2.03035 0.156246 -0.0234808)             (0.806592 -0.45735 -0.85241)             (2.34445 -1.37903 -0.978946)             (-9.97796 -0.243467 -0.890443)             (-9.70301 0.685243 -0.949025)             (-8.56157 1.95281 -1.42608)             (-6.66944 1.34886 -2.0623)             (-5.23403 0.520272 -1.95485)             (0.750644 -0.908655 1.47952)             (1.21297 1.32723 -0.150965)             (1.08201 2.37663 -1.02512)             (2.25768 2.5715 -0.840683)             (3.93716 2.46437 -1.09938)
         0.12             (-4.24352 1.43984 -1.2685)             (-2.90232 0.427034 -0.396923)             (-1.31031 0.389048 0.226148)             (1.68219 -1.22814 -0.809289)             (3.08766 -2.3343 -0.973132)             (-9.83046 1.12152 -0.947584)             (-9.47708 1.80137 -0.986935)             (-8.25776 2.47145 -1.36004)             (-6.05391 0.687729 -2.05293)             (-4.54153 -0.470579 -1.94716)             (1.06484 0.497731 1.42058)             (1.16679 2.24986 -0.228356)             (0.878081 2.91247 -1.02301)             (2.18657 2.13634 -0.858935)             (4.01378 1.59601 -1.11281)
        0.125             (-3.52597 0.908423 -0.971274)             (-2.28362 -0.80579 -0.295615)             (-0.936869 -0.652273 0.241408)             (1.6664 -1.97462 -0.771138)             (2.98437 -2.54803 -1.05254)             (-9.54823 0.591969 -0.705736)             (-9.07397 0.497424 -0.949404)             (-7.80625 1.25751 -1.33858)             (-5.63387 -0.259553 -2.02824)             (-4.07416 -0.716141 -2.166)             (0.546482 0.0801605 1.23103)             (1.05746 1.24606 -0.31595)             (1.01159 1.80902 -1.10247)             (2.68543 1.24352 -0.948854)             (4.71291 1.4429 -1.32578)
         0.13             (-3.92511 0.2317 -1.03451)             (-2.4818 -0.560691 -0.241261)             (-0.988445 0.0843188 0.221724)             (1.82713 -1.04735 -0.746298)             (3.26562 -1.59609 -1.04942)             (-9.19788 0.153326 -0.281524)             (-8.50626 0.893457 -0.578761)             (-7.22424 2.07032 -1.16108)             (-5.10214 0.721542 -1.89953)             (-3.64274 0.197427 -2.05179)             (1.2589 -0.0841821 1.57373)             (1.83946 1.64844 -0.0381743)             (1.72704 2.56712 -0.897303)             (3.10457 2.06346 -0.836956)             (4.84271 2.14073 -1.19737)
        0.135             (-3.83934 1.00656 -0.97722)             (-1.96942 -0.150216 0.12637)             (-0.205444 -0.100408 0.577409)             (2.51332 -1.72379 -0.699681)             (3.81353 -2.40778 -0.989392)             (-9.19488 1.25853 -0.352129)             (-8.36803 1.61464 -0.544242)             (-6.93407 2.143 -1.04869)             (-4.59944 0.0390046 -1.84687)             (-3.13221 -0.680838 -1.97284)             (1.3439 1.10353 1.52585)             (1.59325 2.31537 -0.154502)             (1.47648 2.76126 -0.897721)             (3.00732 1.51811 -0.823727)             (4.86347 1.3577 -1.14661)
         0.14             (-3.31549 0.31158 -0.840489)             (-1.62836 -1.2013 0.182814)             (-0.107367 -0.933607 0.581221)             (2.3949 -2.12417 -0.713802)             (3.72759 -2.21469 -1.06585)             (-9.07078 0.487948 -0.271184)             (-8.11918 0.514077 -0.506097)             (-6.70258 1.11648 -1.0793)             (-4.24837 -0.387427 -1.96611)             (-2.6514 -0.35322 -2.08094)             (0.923761 0.491203 1.41246)             (1.50112 1.41824 -0.247465)             (1.64165 1.8658 -0.944253)             (3.59551 1.27149 -0.865869)             (5.56877 1.78958 -1.10682)
        0.145             (-3.66313 0.0260517 -0.853052)             (-1.7842 -0.651785 0.185902)             (-0.11185 -0.0890704 0.557489)             (2.56772 -1.22784 -0.673069)             (4.05599 -1.37581 -1.11081)             (-8.69332 0.356823 0.0889725)             (-7.64534 1.14233 -0.313703)             (-6.23674 2.07157 -0.991932)             (-3.88295 0.493984 -1.8511)             (-2.33394 0.463927 -1.99359)             (1.59147 0.484619 1.61462)             (2.11669 1.98809 -0.0806025)             (2.20938 2.73893 -0.836631)             (3.80003 1.97143 -0.759102)             (5.53024 2.40319 -0.99824)
         0.15             (-3.42336 0.662505 -0.64565)             (-1.1583 -0.54383 0.598676)             (0.632652 -0.496481 0.743175)             (3.12924 -1.98351 -0.625571)             (4.44873 -2.11756 -1.04364)             (-8.73705 1.33392 0.000160196)             (-7.50567 1.54149 -0.178245)             (-5.91391 1.80101 -0.849556)             (-3.44371 -0.301712 -1.79397)             (-1.90105 -0.377177 -1.91229)             (1.55089 1.4749 1.49358)             (1.82395 2.45136 -0.146664)             (1.98155 2.66009 -0.814501)             (3.76576 1.29129 -0.755632)             (5.61861 1.62622 -0.964187)
        0.155             (-3.00768 -0.172936 -0.543713)             (-0.953896 -1.42056 0.586543)             (0.603958 -1.2173 0.645051)             (2.99107 -2.1444 -0.672419)             (4.39325 -1.74733 -1.11828)             (-8.67747 0.445681 0.00178377)             (-7.30366 0.557135 -0.236173)             (-5.72222 0.906582 -0.871728)             (-3.13936 -0.409222 -1.86597)             (-1.47663 0.140319 -1.9745)             (1.256 0.792227 1.32827)             (1.81801 1.59464 -0.249488)             (2.21814 1.90486 -0.782833)             (4.36955 1.36075 -0.622939)             (6.23181 2.19779 -0.929054)
         0.16             (-3.3175 -0.20163 -0.546098)             (-1.11132 -0.763813 0.553157)             (0.608886 -0.433213 0.612277)             (3.15813 -1.32852 -0.710366)             (4.72 -1.08638 -1.27762)             (-8.34023 0.484384 0.347593)             (-6.9368 1.2651 -0.0901724)             (-5.37216 1.80293 -0.813611)             (-2.89219 0.3748 -1.81245)             (-1.24465 0.782076 -2.00337)             (1.81802 0.886714 1.52545)             (2.32574 2.23468 -0.0805456)             (2.62701 2.70062 -0.696528)             (4.43325 1.96139 -0.557232)             (6.11629 2.6682 -0.901506)
        0.165             (-2.89159 0.189001 -0.212675)             (-0.462737 -0.893847 0.896091)             (1.21038 -0.887047 0.726155)             (3.5832 -2.05491 -0.645845)             (4.95802 -1.71182 -1.16585)             (-8.38578 1.17338 0.352965)             (-6.75029 1.31213 0.111218)             (-5.0596 1.35028 -0.676266)             (-2.54916 -0.412344 -1.73764)             (-0.930377 0.0493858 -1.89102)             (1.58542 1.66431 1.41868)             (2.00336 2.41652 -0.107287)             (2.41388 2.40158 -0.674534)             (4.40787 1.28281 -0.541491)             (6.19198 1.96319 -0.849773)
         0.17             (-2.62053 -0.734305 -0.175353)             (-0.428221 -1.61232 0.859853)             (1.08138 -1.41593 0.680153)             (3.47998 -1.90254 -0.671721)             (4.94506 -1.19138 -1.17104)             (-8.38277 0.261179 0.3169)             (-6.66369 0.460344 0.0319783)             (-4.89875 0.766032 -0.68617)             (-2.19072 -0.109609 -1.73456)             (-0.528315 0.655752 -1.89898)             (1.39145 0.984602 1.2962)             (2.10977 1.74222 -0.0738303)             (2.80178 2.04428 -0.486435)             (5.01556 1.68141 -0.461737)             (6.68796 2.54322 -0.845893)
        0.175             (-2.89801 -0.51234 -0.204313)             (-0.531365 -0.883642 0.809035)             (1.11717 -0.673711 0.62135)             (3.70091 -1.20591 -0.736872)             (5.31948 -0.917095 -1.38569)             (-8.10212 0.504606 0.525051)             (-6.3838 1.30143 0.0819325)             (-4.63623 1.56341 -0.643646)             (-2.01246 0.585269 -1.69356)             (-0.350845 0.980359 -2.01632)             (1.8669 1.21175 1.40699)             (2.52908 2.50184 0.0125885)             (3.04137 2.7229 -0.429889)             (4.94935 2.2051 -0.434278)             (6.51572 2.79707 -0.851303)
         0.18             (-2.39455 -0.276664 0.120636)             (0.0589934 -1.15849 1.01787)             (1.60248 -1.21663 0.709042)             (3.99167 -1.86843 -0.675237)             (5.42886 -1.48561 -1.28333)             (-8.06178 0.950792 0.646833)             (-6.1567 1.08221 0.27854)             (-4.35511 0.965876 -0.547269)             (-1.731 -0.161973 -1.62231)             (-0.113849 0.289357 -1.9135)             (1.4778 1.80592 1.28124)             (2.22378 2.42697 0.000372697)             (2.8638 2.23926 -0.431966)             (4.97142 1.54502 -0.423106)             (6.6279 2.11107 -0.812639)
        0.185             (-2.25045 -1.17932 0.118502)             (-0.0343198 -1.77218 0.908662)             (1.43997 -1.54533 0.669876)             (3.91681 -1.546 -0.69155)             (5.44108 -0.913001 -1.27597)             (-8.06035 0.100334 0.562406)             (-6.08279 0.37782 0.251503)             (-4.19584 0.654427 -0.500607)             (-1.3896 0.282823 -1.6114)             (0.232831 0.921706 -1.89391)             (1.39486 1.16908 1.21191)             (2.45171 1.94699 0.181739)             (3.3484 2.16116 -0.144933)             (5.48595 2.00298 -0.395356)             (7.03091 2.69003 -0.794368)
         0.19             (-2.50557 -0.794297 0.0709484)             (-0.088546 -1.08042 0.84606)             (1.4783 -0.832113 0.567511)             (4.16824 -1.04887 -0.814772)             (5.82121 -0.955838 -1.38712)             (-7.85644 0.486526 0.683977)             (-5.87971 1.19891 0.264416)             (-4.02556 1.36071 -0.494051)             (-1.26379 0.807133 -1.64113)             (0.388201 0.96165 -2.02341)             (1.77438 1.4919 1.29541)             (2.75063 2.67874 0.232608)             (3.46901 2.73028 -0.101805)             (5.35907 2.40395 -0.390672)             (6.85154 2.74072 -0.840763)
        0.195             (-2.01431 -0.682531 0.373007)             (0.389255 -1.42063 0.999751)             (1.87981 -1.44264 0.648596)             (4.34886 -1.618 -0.736056)             (5.83151 -1.46863 -1.30222)             (-7.73799 0.7083 0.879342)             (-5.6586 0.830764 0.424197)             (-3.79549 0.689863 -0.422596)             (-1.05397 0.142905 -1.56471)             (0.569379 0.325381 -1.95235)             (1.36004 1.82625 1.18699)             (2.47237 2.40566 0.219897)             (3.3203 2.16545 -0.115866)             (5.38967 1.78261 -0.384965)             (6.99452 2.10597 -0.858215)
          0.2             (-1.98989 -1.47774 0.339256)             (0.221277 -1.87911 0.917698)             (1.71917 -1.52661 0.633535)             (4.30103 -1.16868 -0.728231)             (5.86266 -0.89911 -1.26271)             (-7.77716 -0.0425907 0.790125)             (-5.56759 0.384416 0.492131)             (-3.57235 0.714223 -0.31356)             (-0.746548 0.660856 -1.52998)             (0.852494 0.937775 -1.89219)             (1.43429 1.32177 1.2637)             (2.86031 2.21227 0.527424)             (3.86025 2.33798 0.0826197)             (5.80708 2.2668 -0.352124)             (7.28544 2.63447 -0.813656)
        0.205             (-2.19887 -0.969513 0.2778)             (0.19433 -1.21741 0.821296)             (1.80908 -0.901036 0.579348)             (4.61908 -1.03432 -0.759869)             (6.25897 -1.25687 -1.25277)             (-7.66177 0.514738 0.82581)             (-5.42946 1.11162 0.481243)             (-3.4945 1.35245 -0.357377)             (-0.645531 0.892524 -1.60287)             (1.03236 0.667356 -1.96115)             (1.7428 1.79353 1.3072)             (3.01044 2.84637 0.54291)             (3.83557 2.8215 0.0848373)             (5.63465 2.47182 -0.364108)             (7.1314 2.45529 -0.856816)
         0.21             (-1.747 -0.976067 0.522425)             (0.582308 -1.66096 0.932401)             (2.12819 -1.55671 0.619659)             (4.69625 -1.54403 -0.695546)             (6.20519 -1.70405 -1.20155)             (-7.51646 0.550228 1.02364)             (-5.24241 0.604655 0.573322)             (-3.30458 0.633176 -0.326787)             (-0.490505 0.267618 -1.54881)             (1.19356 0.107732 -1.95281)             (1.35961 1.8913 1.21682)             (2.77186 2.41265 0.50644)             (3.74706 2.23389 0.068092)             (5.70683 1.85906 -0.374602)             (7.33965 1.90551 -0.940958)
        0.215             (-1.83976 -1.63505 0.450754)             (0.383065 -1.91128 0.895828)             (1.98805 -1.42541 0.619395)             (4.67051 -1.02045 -0.684423)             (6.25254 -1.15905 -1.15865)             (-7.54408 -0.049709 0.995573)             (-5.09386 0.43873 0.734437)             (-3.04564 0.874849 -0.208312)             (-0.227571 0.844068 -1.49908)             (1.41618 0.671931 -1.87749)             (1.59716 1.53258 1.41064)             (3.2315 2.42589 0.780509)             (4.21716 2.49611 0.172124)             (6.04751 2.3798 -0.332036)             (7.52214 2.37143 -0.878546)
         0.22             (-1.97867 -1.08268 0.37612)             (0.395237 -1.30174 0.816617)             (2.14741 -0.978935 0.619955)             (5.05119 -1.20784 -0.605356)             (6.61342 -1.60515 -1.16545)             (-7.49842 0.616458 0.980276)             (-5.03047 1.08303 0.668935)             (-2.99914 1.38391 -0.23269)             (-0.102086 0.778844 -1.53955)             (1.61667 0.260112 -1.91213)             (1.83784 2.13166 1.42442)             (3.27099 2.94664 0.775462)             (4.09031 2.89836 0.120052)             (5.87801 2.38159 -0.361603)             (7.40915 2.04947 -0.907576)
        0.225             (-1.58514 -1.20326 0.548638)             (0.717118 -1.85943 0.888357)             (2.3524 -1.57922 0.645913)             (5.02049 -1.66239 -0.578412)             (6.50433 -1.91572 -1.16384)             (-7.36178 0.488848 1.12836)             (-4.89238 0.459613 0.705462)             (-2.85556 0.713121 -0.206128)             (0.00949574 0.204233 -1.51897)             (1.7471 -0.118423 -1.99922)             (1.49478 2.02689 1.3476)             (3.0798 2.42451 0.738186)             (4.03973 2.33355 0.0942393)             (5.99716 1.82504 -0.418078)             (7.6688 1.71543 -1.07323)
         0.23             (-1.81881 -1.72724 0.477009)             (0.530661 -1.88322 0.885568)             (2.24207 -1.26983 0.644511)             (5.02304 -1.12908 -0.560857)             (6.56333 -1.38977 -1.11098)             (-7.29967 0.0861915 1.21947)             (-4.67933 0.5416 0.879126)             (-2.60796 1.08464 -0.121838)             (0.223885 0.7865 -1.4668)             (1.90406 0.399384 -1.91175)             (1.84551 1.80134 1.53309)             (3.53275 2.56321 0.8893)             (4.41838 2.6637 0.171328)             (6.23969 2.32473 -0.37817)             (7.75222 2.12759 -0.994773)